s -t 0.008670709 -Hs 0 -Hd -1 -Ni 0 -Nx 403.00 -Ny 400.00 -Nz 0.00 -Ne 1000.000000 -Nl RTR -Nw ---  [0.00 0 0] -Is 0.255 -Id -1.255 -It message -Il 32 -If 0 -Ii 0 -Iv 32 
s -t 0.030755339 -Hs 2 -Hd -1 -Ni 2 -Nx 603.00 -Ny 400.00 -Nz 0.00 -Ne 1000.000000 -Nl RTR -Nw ---  [0.00 0 0] -Is 2.255 -Id -1.255 -It message -Il 32 -If 0 -Ii 1 -Iv 32 
s -t 0.048695709 -Hs 0 -Hd -1 -Ni 0 -Nx 403.00 -Ny 400.00 -Nz 0.00 -Ne 1000.000000 -Nl MAC -Nw ---  [0.00 -1 0] -Is 0.255 -Id -1.255 -It message -Il 32 -If 0 -Ii 0 -Iv 32 
N -t 0.048696 -n 1 -e 999.908304
N -t 0.048696 -n 2 -e 999.908304
N -t 0.048697 -n 3 -e 999.908303
N -t 0.048697 -n 4 -e 999.908303
r -t 0.091696042 -Hs 1 -Hd -1 -Ni 1 -Nx 503.00 -Ny 400.00 -Nz 0.00 -Ne 999.908304 -Nl MAC -Nw ---  [0.00 -1 0] -Is 0.255 -Id -1.255 -It message -Il 32 -If 0 -Ii 0 -Iv 32 
r -t 0.091696376 -Hs 2 -Hd -1 -Ni 2 -Nx 603.00 -Ny 400.00 -Nz 0.00 -Ne 999.908304 -Nl MAC -Nw ---  [0.00 -1 0] -Is 0.255 -Id -1.255 -It message -Il 32 -If 0 -Ii 0 -Iv 32 
r -t 0.091721042 -Hs 1 -Hd -1 -Ni 1 -Nx 503.00 -Ny 400.00 -Nz 0.00 -Ne 999.908304 -Nl RTR -Nw ---  [0.00 -1 0] -Is 0.255 -Id -1.255 -It message -Il 32 -If 0 -Ii 0 -Iv 32 
r -t 0.091721376 -Hs 2 -Hd -1 -Ni 2 -Nx 603.00 -Ny 400.00 -Nz 0.00 -Ne 999.908304 -Nl RTR -Nw ---  [0.00 -1 0] -Is 0.255 -Id -1.255 -It message -Il 32 -If 0 -Ii 0 -Iv 32 
s -t 0.135696376 -Hs 2 -Hd -1 -Ni 2 -Nx 603.00 -Ny 400.00 -Nz 0.00 -Ne 999.908304 -Nl MAC -Nw ---  [0.00 -1 2] -Is 2.255 -Id -1.255 -It message -Il 32 -If 0 -Ii 1 -Iv 32 
N -t 0.135697 -n 1 -e 999.821303
N -t 0.135697 -n 3 -e 999.821303
N -t 0.135697 -n 0 -e 999.821303
N -t 0.135697 -n 4 -e 999.821303
s -t 0.177886797 -Hs 3 -Hd -1 -Ni 3 -Nx 703.00 -Ny 400.00 -Nz 0.00 -Ne 999.821303 -Nl RTR -Nw ---  [0.00 0 0] -Is 3.255 -Id -1.255 -It message -Il 32 -If 0 -Ii 2 -Iv 32 
r -t 0.178696709 -Hs 1 -Hd -1 -Ni 1 -Nx 503.00 -Ny 400.00 -Nz 0.00 -Ne 999.821303 -Nl MAC -Nw ---  [0.00 -1 2] -Is 2.255 -Id -1.255 -It message -Il 32 -If 0 -Ii 1 -Iv 32 
r -t 0.178696709 -Hs 3 -Hd -1 -Ni 3 -Nx 703.00 -Ny 400.00 -Nz 0.00 -Ne 999.821303 -Nl MAC -Nw ---  [0.00 -1 2] -Is 2.255 -Id -1.255 -It message -Il 32 -If 0 -Ii 1 -Iv 32 
r -t 0.178697042 -Hs 0 -Hd -1 -Ni 0 -Nx 403.00 -Ny 400.00 -Nz 0.00 -Ne 999.821303 -Nl MAC -Nw ---  [0.00 -1 2] -Is 2.255 -Id -1.255 -It message -Il 32 -If 0 -Ii 1 -Iv 32 
r -t 0.178697042 -Hs 4 -Hd -1 -Ni 4 -Nx 803.00 -Ny 400.00 -Nz 0.00 -Ne 999.821303 -Nl MAC -Nw ---  [0.00 -1 2] -Is 2.255 -Id -1.255 -It message -Il 32 -If 0 -Ii 1 -Iv 32 
r -t 0.178721709 -Hs 1 -Hd -1 -Ni 1 -Nx 503.00 -Ny 400.00 -Nz 0.00 -Ne 999.821303 -Nl RTR -Nw ---  [0.00 -1 2] -Is 2.255 -Id -1.255 -It message -Il 32 -If 0 -Ii 1 -Iv 32 
r -t 0.178721709 -Hs 3 -Hd -1 -Ni 3 -Nx 703.00 -Ny 400.00 -Nz 0.00 -Ne 999.821303 -Nl RTR -Nw ---  [0.00 -1 2] -Is 2.255 -Id -1.255 -It message -Il 32 -If 0 -Ii 1 -Iv 32 
r -t 0.178722042 -Hs 0 -Hd -1 -Ni 0 -Nx 403.00 -Ny 400.00 -Nz 0.00 -Ne 999.821303 -Nl RTR -Nw ---  [0.00 -1 2] -Is 2.255 -Id -1.255 -It message -Il 32 -If 0 -Ii 1 -Iv 32 
r -t 0.178722042 -Hs 4 -Hd -1 -Ni 4 -Nx 803.00 -Ny 400.00 -Nz 0.00 -Ne 999.821303 -Nl RTR -Nw ---  [0.00 -1 2] -Is 2.255 -Id -1.255 -It message -Il 32 -If 0 -Ii 1 -Iv 32 
s -t 0.200696709 -Hs 3 -Hd -1 -Ni 3 -Nx 703.00 -Ny 400.00 -Nz 0.00 -Ne 999.821303 -Nl MAC -Nw ---  [0.00 -1 3] -Is 3.255 -Id -1.255 -It message -Il 32 -If 0 -Ii 2 -Iv 32 
N -t 0.200697 -n 2 -e 999.756303
N -t 0.200697 -n 4 -e 999.756303
N -t 0.200697 -n 1 -e 999.756303
N -t 0.200698 -n 0 -e 999.756302
r -t 0.243697042 -Hs 2 -Hd -1 -Ni 2 -Nx 603.00 -Ny 400.00 -Nz 0.00 -Ne 999.756303 -Nl MAC -Nw ---  [0.00 -1 3] -Is 3.255 -Id -1.255 -It message -Il 32 -If 0 -Ii 2 -Iv 32 
r -t 0.243697042 -Hs 4 -Hd -1 -Ni 4 -Nx 803.00 -Ny 400.00 -Nz 0.00 -Ne 999.756303 -Nl MAC -Nw ---  [0.00 -1 3] -Is 3.255 -Id -1.255 -It message -Il 32 -If 0 -Ii 2 -Iv 32 
r -t 0.243697376 -Hs 1 -Hd -1 -Ni 1 -Nx 503.00 -Ny 400.00 -Nz 0.00 -Ne 999.756303 -Nl MAC -Nw ---  [0.00 -1 3] -Is 3.255 -Id -1.255 -It message -Il 32 -If 0 -Ii 2 -Iv 32 
r -t 0.243722042 -Hs 2 -Hd -1 -Ni 2 -Nx 603.00 -Ny 400.00 -Nz 0.00 -Ne 999.756303 -Nl RTR -Nw ---  [0.00 -1 3] -Is 3.255 -Id -1.255 -It message -Il 32 -If 0 -Ii 2 -Iv 32 
r -t 0.243722042 -Hs 4 -Hd -1 -Ni 4 -Nx 803.00 -Ny 400.00 -Nz 0.00 -Ne 999.756303 -Nl RTR -Nw ---  [0.00 -1 3] -Is 3.255 -Id -1.255 -It message -Il 32 -If 0 -Ii 2 -Iv 32 
r -t 0.243722376 -Hs 1 -Hd -1 -Ni 1 -Nx 503.00 -Ny 400.00 -Nz 0.00 -Ne 999.756303 -Nl RTR -Nw ---  [0.00 -1 3] -Is 3.255 -Id -1.255 -It message -Il 32 -If 0 -Ii 2 -Iv 32 
s -t 0.883484847 -Hs 4 -Hd -1 -Ni 4 -Nx 803.00 -Ny 400.00 -Nz 0.00 -Ne 999.756303 -Nl RTR -Nw ---  [0.00 0 0] -Is 4.255 -Id -1.255 -It message -Il 32 -If 0 -Ii 3 -Iv 32 
s -t 0.954509847 -Hs 4 -Hd -1 -Ni 4 -Nx 803.00 -Ny 400.00 -Nz 0.00 -Ne 999.756303 -Nl MAC -Nw ---  [0.00 -1 4] -Is 4.255 -Id -1.255 -It message -Il 32 -If 0 -Ii 3 -Iv 32 
N -t 0.954510 -n 3 -e 999.002490
N -t 0.954511 -n 2 -e 999.002489
N -t 0.954511 -n 1 -e 999.002489
N -t 0.954511 -n 0 -e 999.002489
r -t 0.997510180 -Hs 3 -Hd -1 -Ni 3 -Nx 703.00 -Ny 400.00 -Nz 0.00 -Ne 999.002490 -Nl MAC -Nw ---  [0.00 -1 4] -Is 4.255 -Id -1.255 -It message -Il 32 -If 0 -Ii 3 -Iv 32 
r -t 0.997510513 -Hs 2 -Hd -1 -Ni 2 -Nx 603.00 -Ny 400.00 -Nz 0.00 -Ne 999.002489 -Nl MAC -Nw ---  [0.00 -1 4] -Is 4.255 -Id -1.255 -It message -Il 32 -If 0 -Ii 3 -Iv 32 
r -t 0.997535180 -Hs 3 -Hd -1 -Ni 3 -Nx 703.00 -Ny 400.00 -Nz 0.00 -Ne 999.002490 -Nl RTR -Nw ---  [0.00 -1 4] -Is 4.255 -Id -1.255 -It message -Il 32 -If 0 -Ii 3 -Iv 32 
r -t 0.997535513 -Hs 2 -Hd -1 -Ni 2 -Nx 603.00 -Ny 400.00 -Nz 0.00 -Ne 999.002489 -Nl RTR -Nw ---  [0.00 -1 4] -Is 4.255 -Id -1.255 -It message -Il 32 -If 0 -Ii 3 -Iv 32 
s -t 1.000000000 -Hs 0 -Hd -2 -Ni 0 -Nx 403.00 -Ny 400.00 -Nz 0.00 -Ne 999.002489 -Nl AGT -Nw ---  [0.00 0 0] -Is 0.0 -Id 4.0 -It cbr -Il 1000 -If 0 -Ii 4 -Iv 32 -Pn cbr -Pi 0 -Pf 0 -Po 0 
r -t 1.000000000 -Hs 0 -Hd -2 -Ni 0 -Nx 403.00 -Ny 400.00 -Nz 0.00 -Ne 999.002489 -Nl RTR -Nw ---  [0.00 0 0] -Is 0.0 -Id 4.0 -It cbr -Il 1000 -If 0 -Ii 4 -Iv 32 -Pn cbr -Pi 0 -Pf 0 -Po 0 
s -t 1.008000000 -Hs 0 -Hd -2 -Ni 0 -Nx 403.00 -Ny 400.00 -Nz 0.00 -Ne 999.002489 -Nl AGT -Nw ---  [0.00 0 0] -Is 0.0 -Id 4.0 -It cbr -Il 1000 -If 0 -Ii 5 -Iv 32 -Pn cbr -Pi 1 -Pf 0 -Po 0 
r -t 1.008000000 -Hs 0 -Hd -2 -Ni 0 -Nx 403.00 -Ny 400.00 -Nz 0.00 -Ne 999.002489 -Nl RTR -Nw ---  [0.00 0 0] -Is 0.0 -Id 4.0 -It cbr -Il 1000 -If 0 -Ii 5 -Iv 32 -Pn cbr -Pi 1 -Pf 0 -Po 0 
s -t 1.016000000 -Hs 0 -Hd -2 -Ni 0 -Nx 403.00 -Ny 400.00 -Nz 0.00 -Ne 999.002489 -Nl AGT -Nw ---  [0.00 0 0] -Is 0.0 -Id 4.0 -It cbr -Il 1000 -If 0 -Ii 6 -Iv 32 -Pn cbr -Pi 2 -Pf 0 -Po 0 
r -t 1.016000000 -Hs 0 -Hd -2 -Ni 0 -Nx 403.00 -Ny 400.00 -Nz 0.00 -Ne 999.002489 -Nl RTR -Nw ---  [0.00 0 0] -Is 0.0 -Id 4.0 -It cbr -Il 1000 -If 0 -Ii 6 -Iv 32 -Pn cbr -Pi 2 -Pf 0 -Po 0 
s -t 1.024000000 -Hs 0 -Hd -2 -Ni 0 -Nx 403.00 -Ny 400.00 -Nz 0.00 -Ne 999.002489 -Nl AGT -Nw ---  [0.00 0 0] -Is 0.0 -Id 4.0 -It cbr -Il 1000 -If 0 -Ii 7 -Iv 32 -Pn cbr -Pi 3 -Pf 0 -Po 0 
r -t 1.024000000 -Hs 0 -Hd -2 -Ni 0 -Nx 403.00 -Ny 400.00 -Nz 0.00 -Ne 999.002489 -Nl RTR -Nw ---  [0.00 0 0] -Is 0.0 -Id 4.0 -It cbr -Il 1000 -If 0 -Ii 7 -Iv 32 -Pn cbr -Pi 3 -Pf 0 -Po 0 
s -t 1.032000000 -Hs 0 -Hd -2 -Ni 0 -Nx 403.00 -Ny 400.00 -Nz 0.00 -Ne 999.002489 -Nl AGT -Nw ---  [0.00 0 0] -Is 0.0 -Id 4.0 -It cbr -Il 1000 -If 0 -Ii 8 -Iv 32 -Pn cbr -Pi 4 -Pf 0 -Po 0 
r -t 1.032000000 -Hs 0 -Hd -2 -Ni 0 -Nx 403.00 -Ny 400.00 -Nz 0.00 -Ne 999.002489 -Nl RTR -Nw ---  [0.00 0 0] -Is 0.0 -Id 4.0 -It cbr -Il 1000 -If 0 -Ii 8 -Iv 32 -Pn cbr -Pi 4 -Pf 0 -Po 0 
s -t 1.040000000 -Hs 0 -Hd -2 -Ni 0 -Nx 403.00 -Ny 400.00 -Nz 0.00 -Ne 999.002489 -Nl AGT -Nw ---  [0.00 0 0] -Is 0.0 -Id 4.0 -It cbr -Il 1000 -If 0 -Ii 9 -Iv 32 -Pn cbr -Pi 5 -Pf 0 -Po 0 
r -t 1.040000000 -Hs 0 -Hd -2 -Ni 0 -Nx 403.00 -Ny 400.00 -Nz 0.00 -Ne 999.002489 -Nl RTR -Nw ---  [0.00 0 0] -Is 0.0 -Id 4.0 -It cbr -Il 1000 -If 0 -Ii 9 -Iv 32 -Pn cbr -Pi 5 -Pf 0 -Po 0 
d -t 1.040000000 -Hs 0 -Hd -2 -Ni 0 -Nx 403.00 -Ny 400.00 -Nz 0.00 -Ne 999.002489 -Nl RTR -Nw IFQ  [0.00 0 0] -Is 0.0 -Id 4.0 -It cbr -Il 1020 -If 0 -Ii 4 -Iv 32 -Pn cbr -Pi 0 -Pf 0 -Po 0 
s -t 1.048000000 -Hs 0 -Hd -2 -Ni 0 -Nx 403.00 -Ny 400.00 -Nz 0.00 -Ne 999.002489 -Nl AGT -Nw ---  [0.00 0 0] -Is 0.0 -Id 4.0 -It cbr -Il 1000 -If 0 -Ii 10 -Iv 32 -Pn cbr -Pi 6 -Pf 0 -Po 0 
r -t 1.048000000 -Hs 0 -Hd -2 -Ni 0 -Nx 403.00 -Ny 400.00 -Nz 0.00 -Ne 999.002489 -Nl RTR -Nw ---  [0.00 0 0] -Is 0.0 -Id 4.0 -It cbr -Il 1000 -If 0 -Ii 10 -Iv 32 -Pn cbr -Pi 6 -Pf 0 -Po 0 
d -t 1.048000000 -Hs 0 -Hd -2 -Ni 0 -Nx 403.00 -Ny 400.00 -Nz 0.00 -Ne 999.002489 -Nl RTR -Nw IFQ  [0.00 0 0] -Is 0.0 -Id 4.0 -It cbr -Il 1020 -If 0 -Ii 5 -Iv 32 -Pn cbr -Pi 1 -Pf 0 -Po 0 
s -t 1.056000000 -Hs 0 -Hd -2 -Ni 0 -Nx 403.00 -Ny 400.00 -Nz 0.00 -Ne 999.002489 -Nl AGT -Nw ---  [0.00 0 0] -Is 0.0 -Id 4.0 -It cbr -Il 1000 -If 0 -Ii 11 -Iv 32 -Pn cbr -Pi 7 -Pf 0 -Po 0 
r -t 1.056000000 -Hs 0 -Hd -2 -Ni 0 -Nx 403.00 -Ny 400.00 -Nz 0.00 -Ne 999.002489 -Nl RTR -Nw ---  [0.00 0 0] -Is 0.0 -Id 4.0 -It cbr -Il 1000 -If 0 -Ii 11 -Iv 32 -Pn cbr -Pi 7 -Pf 0 -Po 0 
d -t 1.056000000 -Hs 0 -Hd -2 -Ni 0 -Nx 403.00 -Ny 400.00 -Nz 0.00 -Ne 999.002489 -Nl RTR -Nw IFQ  [0.00 0 0] -Is 0.0 -Id 4.0 -It cbr -Il 1020 -If 0 -Ii 6 -Iv 32 -Pn cbr -Pi 2 -Pf 0 -Po 0 
s -t 1.064000000 -Hs 0 -Hd -2 -Ni 0 -Nx 403.00 -Ny 400.00 -Nz 0.00 -Ne 999.002489 -Nl AGT -Nw ---  [0.00 0 0] -Is 0.0 -Id 4.0 -It cbr -Il 1000 -If 0 -Ii 12 -Iv 32 -Pn cbr -Pi 8 -Pf 0 -Po 0 
r -t 1.064000000 -Hs 0 -Hd -2 -Ni 0 -Nx 403.00 -Ny 400.00 -Nz 0.00 -Ne 999.002489 -Nl RTR -Nw ---  [0.00 0 0] -Is 0.0 -Id 4.0 -It cbr -Il 1000 -If 0 -Ii 12 -Iv 32 -Pn cbr -Pi 8 -Pf 0 -Po 0 
d -t 1.064000000 -Hs 0 -Hd -2 -Ni 0 -Nx 403.00 -Ny 400.00 -Nz 0.00 -Ne 999.002489 -Nl RTR -Nw IFQ  [0.00 0 0] -Is 0.0 -Id 4.0 -It cbr -Il 1020 -If 0 -Ii 7 -Iv 32 -Pn cbr -Pi 3 -Pf 0 -Po 0 
s -t 1.072000000 -Hs 0 -Hd -2 -Ni 0 -Nx 403.00 -Ny 400.00 -Nz 0.00 -Ne 999.002489 -Nl AGT -Nw ---  [0.00 0 0] -Is 0.0 -Id 4.0 -It cbr -Il 1000 -If 0 -Ii 13 -Iv 32 -Pn cbr -Pi 9 -Pf 0 -Po 0 
r -t 1.072000000 -Hs 0 -Hd -2 -Ni 0 -Nx 403.00 -Ny 400.00 -Nz 0.00 -Ne 999.002489 -Nl RTR -Nw ---  [0.00 0 0] -Is 0.0 -Id 4.0 -It cbr -Il 1000 -If 0 -Ii 13 -Iv 32 -Pn cbr -Pi 9 -Pf 0 -Po 0 
d -t 1.072000000 -Hs 0 -Hd -2 -Ni 0 -Nx 403.00 -Ny 400.00 -Nz 0.00 -Ne 999.002489 -Nl RTR -Nw IFQ  [0.00 0 0] -Is 0.0 -Id 4.0 -It cbr -Il 1020 -If 0 -Ii 8 -Iv 32 -Pn cbr -Pi 4 -Pf 0 -Po 0 
s -t 1.080000000 -Hs 0 -Hd -2 -Ni 0 -Nx 403.00 -Ny 400.00 -Nz 0.00 -Ne 999.002489 -Nl AGT -Nw ---  [0.00 0 0] -Is 0.0 -Id 4.0 -It cbr -Il 1000 -If 0 -Ii 14 -Iv 32 -Pn cbr -Pi 10 -Pf 0 -Po 0 
r -t 1.080000000 -Hs 0 -Hd -2 -Ni 0 -Nx 403.00 -Ny 400.00 -Nz 0.00 -Ne 999.002489 -Nl RTR -Nw ---  [0.00 0 0] -Is 0.0 -Id 4.0 -It cbr -Il 1000 -If 0 -Ii 14 -Iv 32 -Pn cbr -Pi 10 -Pf 0 -Po 0 
d -t 1.080000000 -Hs 0 -Hd -2 -Ni 0 -Nx 403.00 -Ny 400.00 -Nz 0.00 -Ne 999.002489 -Nl RTR -Nw IFQ  [0.00 0 0] -Is 0.0 -Id 4.0 -It cbr -Il 1020 -If 0 -Ii 9 -Iv 32 -Pn cbr -Pi 5 -Pf 0 -Po 0 
s -t 1.088000000 -Hs 0 -Hd -2 -Ni 0 -Nx 403.00 -Ny 400.00 -Nz 0.00 -Ne 999.002489 -Nl AGT -Nw ---  [0.00 0 0] -Is 0.0 -Id 4.0 -It cbr -Il 1000 -If 0 -Ii 15 -Iv 32 -Pn cbr -Pi 11 -Pf 0 -Po 0 
r -t 1.088000000 -Hs 0 -Hd -2 -Ni 0 -Nx 403.00 -Ny 400.00 -Nz 0.00 -Ne 999.002489 -Nl RTR -Nw ---  [0.00 0 0] -Is 0.0 -Id 4.0 -It cbr -Il 1000 -If 0 -Ii 15 -Iv 32 -Pn cbr -Pi 11 -Pf 0 -Po 0 
d -t 1.088000000 -Hs 0 -Hd -2 -Ni 0 -Nx 403.00 -Ny 400.00 -Nz 0.00 -Ne 999.002489 -Nl RTR -Nw IFQ  [0.00 0 0] -Is 0.0 -Id 4.0 -It cbr -Il 1020 -If 0 -Ii 10 -Iv 32 -Pn cbr -Pi 6 -Pf 0 -Po 0 
s -t 1.096000000 -Hs 0 -Hd -2 -Ni 0 -Nx 403.00 -Ny 400.00 -Nz 0.00 -Ne 999.002489 -Nl AGT -Nw ---  [0.00 0 0] -Is 0.0 -Id 4.0 -It cbr -Il 1000 -If 0 -Ii 16 -Iv 32 -Pn cbr -Pi 12 -Pf 0 -Po 0 
r -t 1.096000000 -Hs 0 -Hd -2 -Ni 0 -Nx 403.00 -Ny 400.00 -Nz 0.00 -Ne 999.002489 -Nl RTR -Nw ---  [0.00 0 0] -Is 0.0 -Id 4.0 -It cbr -Il 1000 -If 0 -Ii 16 -Iv 32 -Pn cbr -Pi 12 -Pf 0 -Po 0 
d -t 1.096000000 -Hs 0 -Hd -2 -Ni 0 -Nx 403.00 -Ny 400.00 -Nz 0.00 -Ne 999.002489 -Nl RTR -Nw IFQ  [0.00 0 0] -Is 0.0 -Id 4.0 -It cbr -Il 1020 -If 0 -Ii 11 -Iv 32 -Pn cbr -Pi 7 -Pf 0 -Po 0 
s -t 1.104000000 -Hs 0 -Hd -2 -Ni 0 -Nx 403.00 -Ny 400.00 -Nz 0.00 -Ne 999.002489 -Nl AGT -Nw ---  [0.00 0 0] -Is 0.0 -Id 4.0 -It cbr -Il 1000 -If 0 -Ii 17 -Iv 32 -Pn cbr -Pi 13 -Pf 0 -Po 0 
r -t 1.104000000 -Hs 0 -Hd -2 -Ni 0 -Nx 403.00 -Ny 400.00 -Nz 0.00 -Ne 999.002489 -Nl RTR -Nw ---  [0.00 0 0] -Is 0.0 -Id 4.0 -It cbr -Il 1000 -If 0 -Ii 17 -Iv 32 -Pn cbr -Pi 13 -Pf 0 -Po 0 
d -t 1.104000000 -Hs 0 -Hd -2 -Ni 0 -Nx 403.00 -Ny 400.00 -Nz 0.00 -Ne 999.002489 -Nl RTR -Nw IFQ  [0.00 0 0] -Is 0.0 -Id 4.0 -It cbr -Il 1020 -If 0 -Ii 12 -Iv 32 -Pn cbr -Pi 8 -Pf 0 -Po 0 
s -t 1.112000000 -Hs 0 -Hd -2 -Ni 0 -Nx 403.00 -Ny 400.00 -Nz 0.00 -Ne 999.002489 -Nl AGT -Nw ---  [0.00 0 0] -Is 0.0 -Id 4.0 -It cbr -Il 1000 -If 0 -Ii 19 -Iv 32 -Pn cbr -Pi 14 -Pf 0 -Po 0 
r -t 1.112000000 -Hs 0 -Hd -2 -Ni 0 -Nx 403.00 -Ny 400.00 -Nz 0.00 -Ne 999.002489 -Nl RTR -Nw ---  [0.00 0 0] -Is 0.0 -Id 4.0 -It cbr -Il 1000 -If 0 -Ii 19 -Iv 32 -Pn cbr -Pi 14 -Pf 0 -Po 0 
d -t 1.112000000 -Hs 0 -Hd -2 -Ni 0 -Nx 403.00 -Ny 400.00 -Nz 0.00 -Ne 999.002489 -Nl RTR -Nw IFQ  [0.00 0 0] -Is 0.0 -Id 4.0 -It cbr -Il 1020 -If 0 -Ii 13 -Iv 32 -Pn cbr -Pi 9 -Pf 0 -Po 0 
s -t 1.113509485 -Hs 1 -Hd -1 -Ni 1 -Nx 503.00 -Ny 400.00 -Nz 0.00 -Ne 999.002489 -Nl RTR -Nw ---  [0.00 0 0] -Is 1.255 -Id -1.255 -It message -Il 32 -If 0 -Ii 18 -Iv 32 
s -t 1.120000000 -Hs 0 -Hd -2 -Ni 0 -Nx 403.00 -Ny 400.00 -Nz 0.00 -Ne 999.002489 -Nl AGT -Nw ---  [0.00 0 0] -Is 0.0 -Id 4.0 -It cbr -Il 1000 -If 0 -Ii 20 -Iv 32 -Pn cbr -Pi 15 -Pf 0 -Po 0 
r -t 1.120000000 -Hs 0 -Hd -2 -Ni 0 -Nx 403.00 -Ny 400.00 -Nz 0.00 -Ne 999.002489 -Nl RTR -Nw ---  [0.00 0 0] -Is 0.0 -Id 4.0 -It cbr -Il 1000 -If 0 -Ii 20 -Iv 32 -Pn cbr -Pi 15 -Pf 0 -Po 0 
d -t 1.120000000 -Hs 0 -Hd -2 -Ni 0 -Nx 403.00 -Ny 400.00 -Nz 0.00 -Ne 999.002489 -Nl RTR -Nw IFQ  [0.00 0 0] -Is 0.0 -Id 4.0 -It cbr -Il 1020 -If 0 -Ii 14 -Iv 32 -Pn cbr -Pi 10 -Pf 0 -Po 0 
s -t 1.128000000 -Hs 0 -Hd -2 -Ni 0 -Nx 403.00 -Ny 400.00 -Nz 0.00 -Ne 999.002489 -Nl AGT -Nw ---  [0.00 0 0] -Is 0.0 -Id 4.0 -It cbr -Il 1000 -If 0 -Ii 21 -Iv 32 -Pn cbr -Pi 16 -Pf 0 -Po 0 
r -t 1.128000000 -Hs 0 -Hd -2 -Ni 0 -Nx 403.00 -Ny 400.00 -Nz 0.00 -Ne 999.002489 -Nl RTR -Nw ---  [0.00 0 0] -Is 0.0 -Id 4.0 -It cbr -Il 1000 -If 0 -Ii 21 -Iv 32 -Pn cbr -Pi 16 -Pf 0 -Po 0 
d -t 1.128000000 -Hs 0 -Hd -2 -Ni 0 -Nx 403.00 -Ny 400.00 -Nz 0.00 -Ne 999.002489 -Nl RTR -Nw IFQ  [0.00 0 0] -Is 0.0 -Id 4.0 -It cbr -Il 1020 -If 0 -Ii 15 -Iv 32 -Pn cbr -Pi 11 -Pf 0 -Po 0 
s -t 1.136000000 -Hs 0 -Hd -2 -Ni 0 -Nx 403.00 -Ny 400.00 -Nz 0.00 -Ne 999.002489 -Nl AGT -Nw ---  [0.00 0 0] -Is 0.0 -Id 4.0 -It cbr -Il 1000 -If 0 -Ii 22 -Iv 32 -Pn cbr -Pi 17 -Pf 0 -Po 0 
r -t 1.136000000 -Hs 0 -Hd -2 -Ni 0 -Nx 403.00 -Ny 400.00 -Nz 0.00 -Ne 999.002489 -Nl RTR -Nw ---  [0.00 0 0] -Is 0.0 -Id 4.0 -It cbr -Il 1000 -If 0 -Ii 22 -Iv 32 -Pn cbr -Pi 17 -Pf 0 -Po 0 
d -t 1.136000000 -Hs 0 -Hd -2 -Ni 0 -Nx 403.00 -Ny 400.00 -Nz 0.00 -Ne 999.002489 -Nl RTR -Nw IFQ  [0.00 0 0] -Is 0.0 -Id 4.0 -It cbr -Il 1020 -If 0 -Ii 16 -Iv 32 -Pn cbr -Pi 12 -Pf 0 -Po 0 
s -t 1.137534485 -Hs 1 -Hd -1 -Ni 1 -Nx 503.00 -Ny 400.00 -Nz 0.00 -Ne 999.002489 -Nl MAC -Nw ---  [0.00 -1 1] -Is 1.255 -Id -1.255 -It message -Il 32 -If 0 -Ii 18 -Iv 32 
N -t 1.137535 -n 0 -e 998.819465
N -t 1.137535 -n 2 -e 998.819465
N -t 1.137535 -n 3 -e 998.819465
N -t 1.137535 -n 4 -e 998.819465
s -t 1.144000000 -Hs 0 -Hd -2 -Ni 0 -Nx 403.00 -Ny 400.00 -Nz 0.00 -Ne 998.819465 -Nl AGT -Nw ---  [0.00 0 0] -Is 0.0 -Id 4.0 -It cbr -Il 1000 -If 0 -Ii 23 -Iv 32 -Pn cbr -Pi 18 -Pf 0 -Po 0 
r -t 1.144000000 -Hs 0 -Hd -2 -Ni 0 -Nx 403.00 -Ny 400.00 -Nz 0.00 -Ne 998.819465 -Nl RTR -Nw ---  [0.00 0 0] -Is 0.0 -Id 4.0 -It cbr -Il 1000 -If 0 -Ii 23 -Iv 32 -Pn cbr -Pi 18 -Pf 0 -Po 0 
d -t 1.144000000 -Hs 0 -Hd -2 -Ni 0 -Nx 403.00 -Ny 400.00 -Nz 0.00 -Ne 998.819465 -Nl RTR -Nw IFQ  [0.00 0 0] -Is 0.0 -Id 4.0 -It cbr -Il 1020 -If 0 -Ii 17 -Iv 32 -Pn cbr -Pi 13 -Pf 0 -Po 0 
s -t 1.152000000 -Hs 0 -Hd -2 -Ni 0 -Nx 403.00 -Ny 400.00 -Nz 0.00 -Ne 998.819465 -Nl AGT -Nw ---  [0.00 0 0] -Is 0.0 -Id 4.0 -It cbr -Il 1000 -If 0 -Ii 24 -Iv 32 -Pn cbr -Pi 19 -Pf 0 -Po 0 
r -t 1.152000000 -Hs 0 -Hd -2 -Ni 0 -Nx 403.00 -Ny 400.00 -Nz 0.00 -Ne 998.819465 -Nl RTR -Nw ---  [0.00 0 0] -Is 0.0 -Id 4.0 -It cbr -Il 1000 -If 0 -Ii 24 -Iv 32 -Pn cbr -Pi 19 -Pf 0 -Po 0 
d -t 1.152000000 -Hs 0 -Hd -2 -Ni 0 -Nx 403.00 -Ny 400.00 -Nz 0.00 -Ne 998.819465 -Nl RTR -Nw IFQ  [0.00 0 0] -Is 0.0 -Id 4.0 -It cbr -Il 1020 -If 0 -Ii 19 -Iv 32 -Pn cbr -Pi 14 -Pf 0 -Po 0 
s -t 1.160000000 -Hs 0 -Hd -2 -Ni 0 -Nx 403.00 -Ny 400.00 -Nz 0.00 -Ne 998.819465 -Nl AGT -Nw ---  [0.00 0 0] -Is 0.0 -Id 4.0 -It cbr -Il 1000 -If 0 -Ii 25 -Iv 32 -Pn cbr -Pi 20 -Pf 0 -Po 0 
r -t 1.160000000 -Hs 0 -Hd -2 -Ni 0 -Nx 403.00 -Ny 400.00 -Nz 0.00 -Ne 998.819465 -Nl RTR -Nw ---  [0.00 0 0] -Is 0.0 -Id 4.0 -It cbr -Il 1000 -If 0 -Ii 25 -Iv 32 -Pn cbr -Pi 20 -Pf 0 -Po 0 
d -t 1.160000000 -Hs 0 -Hd -2 -Ni 0 -Nx 403.00 -Ny 400.00 -Nz 0.00 -Ne 998.819465 -Nl RTR -Nw IFQ  [0.00 0 0] -Is 0.0 -Id 4.0 -It cbr -Il 1020 -If 0 -Ii 20 -Iv 32 -Pn cbr -Pi 15 -Pf 0 -Po 0 
s -t 1.168000000 -Hs 0 -Hd -2 -Ni 0 -Nx 403.00 -Ny 400.00 -Nz 0.00 -Ne 998.819465 -Nl AGT -Nw ---  [0.00 0 0] -Is 0.0 -Id 4.0 -It cbr -Il 1000 -If 0 -Ii 26 -Iv 32 -Pn cbr -Pi 21 -Pf 0 -Po 0 
r -t 1.168000000 -Hs 0 -Hd -2 -Ni 0 -Nx 403.00 -Ny 400.00 -Nz 0.00 -Ne 998.819465 -Nl RTR -Nw ---  [0.00 0 0] -Is 0.0 -Id 4.0 -It cbr -Il 1000 -If 0 -Ii 26 -Iv 32 -Pn cbr -Pi 21 -Pf 0 -Po 0 
d -t 1.168000000 -Hs 0 -Hd -2 -Ni 0 -Nx 403.00 -Ny 400.00 -Nz 0.00 -Ne 998.819465 -Nl RTR -Nw IFQ  [0.00 0 0] -Is 0.0 -Id 4.0 -It cbr -Il 1020 -If 0 -Ii 21 -Iv 32 -Pn cbr -Pi 16 -Pf 0 -Po 0 
s -t 1.176000000 -Hs 0 -Hd -2 -Ni 0 -Nx 403.00 -Ny 400.00 -Nz 0.00 -Ne 998.819465 -Nl AGT -Nw ---  [0.00 0 0] -Is 0.0 -Id 4.0 -It cbr -Il 1000 -If 0 -Ii 27 -Iv 32 -Pn cbr -Pi 22 -Pf 0 -Po 0 
r -t 1.176000000 -Hs 0 -Hd -2 -Ni 0 -Nx 403.00 -Ny 400.00 -Nz 0.00 -Ne 998.819465 -Nl RTR -Nw ---  [0.00 0 0] -Is 0.0 -Id 4.0 -It cbr -Il 1000 -If 0 -Ii 27 -Iv 32 -Pn cbr -Pi 22 -Pf 0 -Po 0 
d -t 1.176000000 -Hs 0 -Hd -2 -Ni 0 -Nx 403.00 -Ny 400.00 -Nz 0.00 -Ne 998.819465 -Nl RTR -Nw IFQ  [0.00 0 0] -Is 0.0 -Id 4.0 -It cbr -Il 1020 -If 0 -Ii 22 -Iv 32 -Pn cbr -Pi 17 -Pf 0 -Po 0 
r -t 1.180534818 -Hs 0 -Hd -1 -Ni 0 -Nx 403.00 -Ny 400.00 -Nz 0.00 -Ne 998.819465 -Nl MAC -Nw ---  [0.00 -1 1] -Is 1.255 -Id -1.255 -It message -Il 32 -If 0 -Ii 18 -Iv 32 
r -t 1.180534818 -Hs 2 -Hd -1 -Ni 2 -Nx 603.00 -Ny 400.00 -Nz 0.00 -Ne 998.819465 -Nl MAC -Nw ---  [0.00 -1 1] -Is 1.255 -Id -1.255 -It message -Il 32 -If 0 -Ii 18 -Iv 32 
r -t 1.180535151 -Hs 3 -Hd -1 -Ni 3 -Nx 703.00 -Ny 400.00 -Nz 0.00 -Ne 998.819465 -Nl MAC -Nw ---  [0.00 -1 1] -Is 1.255 -Id -1.255 -It message -Il 32 -If 0 -Ii 18 -Iv 32 
r -t 1.180559818 -Hs 0 -Hd -1 -Ni 0 -Nx 403.00 -Ny 400.00 -Nz 0.00 -Ne 998.819465 -Nl RTR -Nw ---  [0.00 -1 1] -Is 1.255 -Id -1.255 -It message -Il 32 -If 0 -Ii 18 -Iv 32 
r -t 1.180559818 -Hs 2 -Hd -1 -Ni 2 -Nx 603.00 -Ny 400.00 -Nz 0.00 -Ne 998.819465 -Nl RTR -Nw ---  [0.00 -1 1] -Is 1.255 -Id -1.255 -It message -Il 32 -If 0 -Ii 18 -Iv 32 
r -t 1.180560151 -Hs 3 -Hd -1 -Ni 3 -Nx 703.00 -Ny 400.00 -Nz 0.00 -Ne 998.819465 -Nl RTR -Nw ---  [0.00 -1 1] -Is 1.255 -Id -1.255 -It message -Il 32 -If 0 -Ii 18 -Iv 32 
s -t 1.184000000 -Hs 0 -Hd -2 -Ni 0 -Nx 403.00 -Ny 400.00 -Nz 0.00 -Ne 998.819465 -Nl AGT -Nw ---  [0.00 0 0] -Is 0.0 -Id 4.0 -It cbr -Il 1000 -If 0 -Ii 28 -Iv 32 -Pn cbr -Pi 23 -Pf 0 -Po 0 
r -t 1.184000000 -Hs 0 -Hd -2 -Ni 0 -Nx 403.00 -Ny 400.00 -Nz 0.00 -Ne 998.819465 -Nl RTR -Nw ---  [0.00 0 0] -Is 0.0 -Id 4.0 -It cbr -Il 1000 -If 0 -Ii 28 -Iv 32 -Pn cbr -Pi 23 -Pf 0 -Po 0 
d -t 1.184000000 -Hs 0 -Hd -2 -Ni 0 -Nx 403.00 -Ny 400.00 -Nz 0.00 -Ne 998.819465 -Nl RTR -Nw IFQ  [0.00 0 0] -Is 0.0 -Id 4.0 -It cbr -Il 1020 -If 0 -Ii 23 -Iv 32 -Pn cbr -Pi 18 -Pf 0 -Po 0 
s -t 1.192000000 -Hs 0 -Hd -2 -Ni 0 -Nx 403.00 -Ny 400.00 -Nz 0.00 -Ne 998.819465 -Nl AGT -Nw ---  [0.00 0 0] -Is 0.0 -Id 4.0 -It cbr -Il 1000 -If 0 -Ii 29 -Iv 32 -Pn cbr -Pi 24 -Pf 0 -Po 0 
r -t 1.192000000 -Hs 0 -Hd -2 -Ni 0 -Nx 403.00 -Ny 400.00 -Nz 0.00 -Ne 998.819465 -Nl RTR -Nw ---  [0.00 0 0] -Is 0.0 -Id 4.0 -It cbr -Il 1000 -If 0 -Ii 29 -Iv 32 -Pn cbr -Pi 24 -Pf 0 -Po 0 
d -t 1.192000000 -Hs 0 -Hd -2 -Ni 0 -Nx 403.00 -Ny 400.00 -Nz 0.00 -Ne 998.819465 -Nl RTR -Nw IFQ  [0.00 0 0] -Is 0.0 -Id 4.0 -It cbr -Il 1020 -If 0 -Ii 24 -Iv 32 -Pn cbr -Pi 19 -Pf 0 -Po 0 
s -t 1.200000000 -Hs 0 -Hd -2 -Ni 0 -Nx 403.00 -Ny 400.00 -Nz 0.00 -Ne 998.819465 -Nl AGT -Nw ---  [0.00 0 0] -Is 0.0 -Id 4.0 -It cbr -Il 1000 -If 0 -Ii 30 -Iv 32 -Pn cbr -Pi 25 -Pf 0 -Po 0 
r -t 1.200000000 -Hs 0 -Hd -2 -Ni 0 -Nx 403.00 -Ny 400.00 -Nz 0.00 -Ne 998.819465 -Nl RTR -Nw ---  [0.00 0 0] -Is 0.0 -Id 4.0 -It cbr -Il 1000 -If 0 -Ii 30 -Iv 32 -Pn cbr -Pi 25 -Pf 0 -Po 0 
d -t 1.200000000 -Hs 0 -Hd -2 -Ni 0 -Nx 403.00 -Ny 400.00 -Nz 0.00 -Ne 998.819465 -Nl RTR -Nw IFQ  [0.00 0 0] -Is 0.0 -Id 4.0 -It cbr -Il 1020 -If 0 -Ii 25 -Iv 32 -Pn cbr -Pi 20 -Pf 0 -Po 0 
s -t 1.208000000 -Hs 0 -Hd -2 -Ni 0 -Nx 403.00 -Ny 400.00 -Nz 0.00 -Ne 998.819465 -Nl AGT -Nw ---  [0.00 0 0] -Is 0.0 -Id 4.0 -It cbr -Il 1000 -If 0 -Ii 31 -Iv 32 -Pn cbr -Pi 26 -Pf 0 -Po 0 
r -t 1.208000000 -Hs 0 -Hd -2 -Ni 0 -Nx 403.00 -Ny 400.00 -Nz 0.00 -Ne 998.819465 -Nl RTR -Nw ---  [0.00 0 0] -Is 0.0 -Id 4.0 -It cbr -Il 1000 -If 0 -Ii 31 -Iv 32 -Pn cbr -Pi 26 -Pf 0 -Po 0 
d -t 1.208000000 -Hs 0 -Hd -2 -Ni 0 -Nx 403.00 -Ny 400.00 -Nz 0.00 -Ne 998.819465 -Nl RTR -Nw IFQ  [0.00 0 0] -Is 0.0 -Id 4.0 -It cbr -Il 1020 -If 0 -Ii 26 -Iv 32 -Pn cbr -Pi 21 -Pf 0 -Po 0 
s -t 1.216000000 -Hs 0 -Hd -2 -Ni 0 -Nx 403.00 -Ny 400.00 -Nz 0.00 -Ne 998.819465 -Nl AGT -Nw ---  [0.00 0 0] -Is 0.0 -Id 4.0 -It cbr -Il 1000 -If 0 -Ii 32 -Iv 32 -Pn cbr -Pi 27 -Pf 0 -Po 0 
r -t 1.216000000 -Hs 0 -Hd -2 -Ni 0 -Nx 403.00 -Ny 400.00 -Nz 0.00 -Ne 998.819465 -Nl RTR -Nw ---  [0.00 0 0] -Is 0.0 -Id 4.0 -It cbr -Il 1000 -If 0 -Ii 32 -Iv 32 -Pn cbr -Pi 27 -Pf 0 -Po 0 
d -t 1.216000000 -Hs 0 -Hd -2 -Ni 0 -Nx 403.00 -Ny 400.00 -Nz 0.00 -Ne 998.819465 -Nl RTR -Nw IFQ  [0.00 0 0] -Is 0.0 -Id 4.0 -It cbr -Il 1020 -If 0 -Ii 27 -Iv 32 -Pn cbr -Pi 22 -Pf 0 -Po 0 
s -t 1.224000000 -Hs 0 -Hd -2 -Ni 0 -Nx 403.00 -Ny 400.00 -Nz 0.00 -Ne 998.819465 -Nl AGT -Nw ---  [0.00 0 0] -Is 0.0 -Id 4.0 -It cbr -Il 1000 -If 0 -Ii 33 -Iv 32 -Pn cbr -Pi 28 -Pf 0 -Po 0 
r -t 1.224000000 -Hs 0 -Hd -2 -Ni 0 -Nx 403.00 -Ny 400.00 -Nz 0.00 -Ne 998.819465 -Nl RTR -Nw ---  [0.00 0 0] -Is 0.0 -Id 4.0 -It cbr -Il 1000 -If 0 -Ii 33 -Iv 32 -Pn cbr -Pi 28 -Pf 0 -Po 0 
d -t 1.224000000 -Hs 0 -Hd -2 -Ni 0 -Nx 403.00 -Ny 400.00 -Nz 0.00 -Ne 998.819465 -Nl RTR -Nw IFQ  [0.00 0 0] -Is 0.0 -Id 4.0 -It cbr -Il 1020 -If 0 -Ii 28 -Iv 32 -Pn cbr -Pi 23 -Pf 0 -Po 0 
s -t 1.232000000 -Hs 0 -Hd -2 -Ni 0 -Nx 403.00 -Ny 400.00 -Nz 0.00 -Ne 998.819465 -Nl AGT -Nw ---  [0.00 0 0] -Is 0.0 -Id 4.0 -It cbr -Il 1000 -If 0 -Ii 34 -Iv 32 -Pn cbr -Pi 29 -Pf 0 -Po 0 
r -t 1.232000000 -Hs 0 -Hd -2 -Ni 0 -Nx 403.00 -Ny 400.00 -Nz 0.00 -Ne 998.819465 -Nl RTR -Nw ---  [0.00 0 0] -Is 0.0 -Id 4.0 -It cbr -Il 1000 -If 0 -Ii 34 -Iv 32 -Pn cbr -Pi 29 -Pf 0 -Po 0 
d -t 1.232000000 -Hs 0 -Hd -2 -Ni 0 -Nx 403.00 -Ny 400.00 -Nz 0.00 -Ne 998.819465 -Nl RTR -Nw IFQ  [0.00 0 0] -Is 0.0 -Id 4.0 -It cbr -Il 1020 -If 0 -Ii 29 -Iv 32 -Pn cbr -Pi 24 -Pf 0 -Po 0 
s -t 1.240000000 -Hs 0 -Hd -2 -Ni 0 -Nx 403.00 -Ny 400.00 -Nz 0.00 -Ne 998.819465 -Nl AGT -Nw ---  [0.00 0 0] -Is 0.0 -Id 4.0 -It cbr -Il 1000 -If 0 -Ii 35 -Iv 32 -Pn cbr -Pi 30 -Pf 0 -Po 0 
r -t 1.240000000 -Hs 0 -Hd -2 -Ni 0 -Nx 403.00 -Ny 400.00 -Nz 0.00 -Ne 998.819465 -Nl RTR -Nw ---  [0.00 0 0] -Is 0.0 -Id 4.0 -It cbr -Il 1000 -If 0 -Ii 35 -Iv 32 -Pn cbr -Pi 30 -Pf 0 -Po 0 
d -t 1.240000000 -Hs 0 -Hd -2 -Ni 0 -Nx 403.00 -Ny 400.00 -Nz 0.00 -Ne 998.819465 -Nl RTR -Nw IFQ  [0.00 0 0] -Is 0.0 -Id 4.0 -It cbr -Il 1020 -If 0 -Ii 30 -Iv 32 -Pn cbr -Pi 25 -Pf 0 -Po 0 
s -t 1.248000000 -Hs 0 -Hd -2 -Ni 0 -Nx 403.00 -Ny 400.00 -Nz 0.00 -Ne 998.819465 -Nl AGT -Nw ---  [0.00 0 0] -Is 0.0 -Id 4.0 -It cbr -Il 1000 -If 0 -Ii 36 -Iv 32 -Pn cbr -Pi 31 -Pf 0 -Po 0 
r -t 1.248000000 -Hs 0 -Hd -2 -Ni 0 -Nx 403.00 -Ny 400.00 -Nz 0.00 -Ne 998.819465 -Nl RTR -Nw ---  [0.00 0 0] -Is 0.0 -Id 4.0 -It cbr -Il 1000 -If 0 -Ii 36 -Iv 32 -Pn cbr -Pi 31 -Pf 0 -Po 0 
d -t 1.248000000 -Hs 0 -Hd -2 -Ni 0 -Nx 403.00 -Ny 400.00 -Nz 0.00 -Ne 998.819465 -Nl RTR -Nw IFQ  [0.00 0 0] -Is 0.0 -Id 4.0 -It cbr -Il 1020 -If 0 -Ii 31 -Iv 32 -Pn cbr -Pi 26 -Pf 0 -Po 0 
s -t 1.256000000 -Hs 0 -Hd -2 -Ni 0 -Nx 403.00 -Ny 400.00 -Nz 0.00 -Ne 998.819465 -Nl AGT -Nw ---  [0.00 0 0] -Is 0.0 -Id 4.0 -It cbr -Il 1000 -If 0 -Ii 37 -Iv 32 -Pn cbr -Pi 32 -Pf 0 -Po 0 
r -t 1.256000000 -Hs 0 -Hd -2 -Ni 0 -Nx 403.00 -Ny 400.00 -Nz 0.00 -Ne 998.819465 -Nl RTR -Nw ---  [0.00 0 0] -Is 0.0 -Id 4.0 -It cbr -Il 1000 -If 0 -Ii 37 -Iv 32 -Pn cbr -Pi 32 -Pf 0 -Po 0 
d -t 1.256000000 -Hs 0 -Hd -2 -Ni 0 -Nx 403.00 -Ny 400.00 -Nz 0.00 -Ne 998.819465 -Nl RTR -Nw IFQ  [0.00 0 0] -Is 0.0 -Id 4.0 -It cbr -Il 1020 -If 0 -Ii 32 -Iv 32 -Pn cbr -Pi 27 -Pf 0 -Po 0 
s -t 1.264000000 -Hs 0 -Hd -2 -Ni 0 -Nx 403.00 -Ny 400.00 -Nz 0.00 -Ne 998.819465 -Nl AGT -Nw ---  [0.00 0 0] -Is 0.0 -Id 4.0 -It cbr -Il 1000 -If 0 -Ii 38 -Iv 32 -Pn cbr -Pi 33 -Pf 0 -Po 0 
r -t 1.264000000 -Hs 0 -Hd -2 -Ni 0 -Nx 403.00 -Ny 400.00 -Nz 0.00 -Ne 998.819465 -Nl RTR -Nw ---  [0.00 0 0] -Is 0.0 -Id 4.0 -It cbr -Il 1000 -If 0 -Ii 38 -Iv 32 -Pn cbr -Pi 33 -Pf 0 -Po 0 
d -t 1.264000000 -Hs 0 -Hd -2 -Ni 0 -Nx 403.00 -Ny 400.00 -Nz 0.00 -Ne 998.819465 -Nl RTR -Nw IFQ  [0.00 0 0] -Is 0.0 -Id 4.0 -It cbr -Il 1020 -If 0 -Ii 33 -Iv 32 -Pn cbr -Pi 28 -Pf 0 -Po 0 
s -t 1.272000000 -Hs 0 -Hd -2 -Ni 0 -Nx 403.00 -Ny 400.00 -Nz 0.00 -Ne 998.819465 -Nl AGT -Nw ---  [0.00 0 0] -Is 0.0 -Id 4.0 -It cbr -Il 1000 -If 0 -Ii 39 -Iv 32 -Pn cbr -Pi 34 -Pf 0 -Po 0 
r -t 1.272000000 -Hs 0 -Hd -2 -Ni 0 -Nx 403.00 -Ny 400.00 -Nz 0.00 -Ne 998.819465 -Nl RTR -Nw ---  [0.00 0 0] -Is 0.0 -Id 4.0 -It cbr -Il 1000 -If 0 -Ii 39 -Iv 32 -Pn cbr -Pi 34 -Pf 0 -Po 0 
d -t 1.272000000 -Hs 0 -Hd -2 -Ni 0 -Nx 403.00 -Ny 400.00 -Nz 0.00 -Ne 998.819465 -Nl RTR -Nw IFQ  [0.00 0 0] -Is 0.0 -Id 4.0 -It cbr -Il 1020 -If 0 -Ii 34 -Iv 32 -Pn cbr -Pi 29 -Pf 0 -Po 0 
s -t 1.280000000 -Hs 0 -Hd -2 -Ni 0 -Nx 403.00 -Ny 400.00 -Nz 0.00 -Ne 998.819465 -Nl AGT -Nw ---  [0.00 0 0] -Is 0.0 -Id 4.0 -It cbr -Il 1000 -If 0 -Ii 40 -Iv 32 -Pn cbr -Pi 35 -Pf 0 -Po 0 
r -t 1.280000000 -Hs 0 -Hd -2 -Ni 0 -Nx 403.00 -Ny 400.00 -Nz 0.00 -Ne 998.819465 -Nl RTR -Nw ---  [0.00 0 0] -Is 0.0 -Id 4.0 -It cbr -Il 1000 -If 0 -Ii 40 -Iv 32 -Pn cbr -Pi 35 -Pf 0 -Po 0 
d -t 1.280000000 -Hs 0 -Hd -2 -Ni 0 -Nx 403.00 -Ny 400.00 -Nz 0.00 -Ne 998.819465 -Nl RTR -Nw IFQ  [0.00 0 0] -Is 0.0 -Id 4.0 -It cbr -Il 1020 -If 0 -Ii 35 -Iv 32 -Pn cbr -Pi 30 -Pf 0 -Po 0 
s -t 1.288000000 -Hs 0 -Hd -2 -Ni 0 -Nx 403.00 -Ny 400.00 -Nz 0.00 -Ne 998.819465 -Nl AGT -Nw ---  [0.00 0 0] -Is 0.0 -Id 4.0 -It cbr -Il 1000 -If 0 -Ii 41 -Iv 32 -Pn cbr -Pi 36 -Pf 0 -Po 0 
r -t 1.288000000 -Hs 0 -Hd -2 -Ni 0 -Nx 403.00 -Ny 400.00 -Nz 0.00 -Ne 998.819465 -Nl RTR -Nw ---  [0.00 0 0] -Is 0.0 -Id 4.0 -It cbr -Il 1000 -If 0 -Ii 41 -Iv 32 -Pn cbr -Pi 36 -Pf 0 -Po 0 
d -t 1.288000000 -Hs 0 -Hd -2 -Ni 0 -Nx 403.00 -Ny 400.00 -Nz 0.00 -Ne 998.819465 -Nl RTR -Nw IFQ  [0.00 0 0] -Is 0.0 -Id 4.0 -It cbr -Il 1020 -If 0 -Ii 36 -Iv 32 -Pn cbr -Pi 31 -Pf 0 -Po 0 
s -t 1.296000000 -Hs 0 -Hd -2 -Ni 0 -Nx 403.00 -Ny 400.00 -Nz 0.00 -Ne 998.819465 -Nl AGT -Nw ---  [0.00 0 0] -Is 0.0 -Id 4.0 -It cbr -Il 1000 -If 0 -Ii 42 -Iv 32 -Pn cbr -Pi 37 -Pf 0 -Po 0 
r -t 1.296000000 -Hs 0 -Hd -2 -Ni 0 -Nx 403.00 -Ny 400.00 -Nz 0.00 -Ne 998.819465 -Nl RTR -Nw ---  [0.00 0 0] -Is 0.0 -Id 4.0 -It cbr -Il 1000 -If 0 -Ii 42 -Iv 32 -Pn cbr -Pi 37 -Pf 0 -Po 0 
d -t 1.296000000 -Hs 0 -Hd -2 -Ni 0 -Nx 403.00 -Ny 400.00 -Nz 0.00 -Ne 998.819465 -Nl RTR -Nw IFQ  [0.00 0 0] -Is 0.0 -Id 4.0 -It cbr -Il 1020 -If 0 -Ii 37 -Iv 32 -Pn cbr -Pi 32 -Pf 0 -Po 0 
s -t 1.304000000 -Hs 0 -Hd -2 -Ni 0 -Nx 403.00 -Ny 400.00 -Nz 0.00 -Ne 998.819465 -Nl AGT -Nw ---  [0.00 0 0] -Is 0.0 -Id 4.0 -It cbr -Il 1000 -If 0 -Ii 43 -Iv 32 -Pn cbr -Pi 38 -Pf 0 -Po 0 
r -t 1.304000000 -Hs 0 -Hd -2 -Ni 0 -Nx 403.00 -Ny 400.00 -Nz 0.00 -Ne 998.819465 -Nl RTR -Nw ---  [0.00 0 0] -Is 0.0 -Id 4.0 -It cbr -Il 1000 -If 0 -Ii 43 -Iv 32 -Pn cbr -Pi 38 -Pf 0 -Po 0 
d -t 1.304000000 -Hs 0 -Hd -2 -Ni 0 -Nx 403.00 -Ny 400.00 -Nz 0.00 -Ne 998.819465 -Nl RTR -Nw IFQ  [0.00 0 0] -Is 0.0 -Id 4.0 -It cbr -Il 1020 -If 0 -Ii 38 -Iv 32 -Pn cbr -Pi 33 -Pf 0 -Po 0 
s -t 1.312000000 -Hs 0 -Hd -2 -Ni 0 -Nx 403.00 -Ny 400.00 -Nz 0.00 -Ne 998.819465 -Nl AGT -Nw ---  [0.00 0 0] -Is 0.0 -Id 4.0 -It cbr -Il 1000 -If 0 -Ii 44 -Iv 32 -Pn cbr -Pi 39 -Pf 0 -Po 0 
r -t 1.312000000 -Hs 0 -Hd -2 -Ni 0 -Nx 403.00 -Ny 400.00 -Nz 0.00 -Ne 998.819465 -Nl RTR -Nw ---  [0.00 0 0] -Is 0.0 -Id 4.0 -It cbr -Il 1000 -If 0 -Ii 44 -Iv 32 -Pn cbr -Pi 39 -Pf 0 -Po 0 
d -t 1.312000000 -Hs 0 -Hd -2 -Ni 0 -Nx 403.00 -Ny 400.00 -Nz 0.00 -Ne 998.819465 -Nl RTR -Nw IFQ  [0.00 0 0] -Is 0.0 -Id 4.0 -It cbr -Il 1020 -If 0 -Ii 39 -Iv 32 -Pn cbr -Pi 34 -Pf 0 -Po 0 
s -t 1.320000000 -Hs 0 -Hd -2 -Ni 0 -Nx 403.00 -Ny 400.00 -Nz 0.00 -Ne 998.819465 -Nl AGT -Nw ---  [0.00 0 0] -Is 0.0 -Id 4.0 -It cbr -Il 1000 -If 0 -Ii 45 -Iv 32 -Pn cbr -Pi 40 -Pf 0 -Po 0 
r -t 1.320000000 -Hs 0 -Hd -2 -Ni 0 -Nx 403.00 -Ny 400.00 -Nz 0.00 -Ne 998.819465 -Nl RTR -Nw ---  [0.00 0 0] -Is 0.0 -Id 4.0 -It cbr -Il 1000 -If 0 -Ii 45 -Iv 32 -Pn cbr -Pi 40 -Pf 0 -Po 0 
d -t 1.320000000 -Hs 0 -Hd -2 -Ni 0 -Nx 403.00 -Ny 400.00 -Nz 0.00 -Ne 998.819465 -Nl RTR -Nw IFQ  [0.00 0 0] -Is 0.0 -Id 4.0 -It cbr -Il 1020 -If 0 -Ii 40 -Iv 32 -Pn cbr -Pi 35 -Pf 0 -Po 0 
s -t 1.328000000 -Hs 0 -Hd -2 -Ni 0 -Nx 403.00 -Ny 400.00 -Nz 0.00 -Ne 998.819465 -Nl AGT -Nw ---  [0.00 0 0] -Is 0.0 -Id 4.0 -It cbr -Il 1000 -If 0 -Ii 46 -Iv 32 -Pn cbr -Pi 41 -Pf 0 -Po 0 